4
Me Energy = -39.86613248228
C 0.1965046 -0.4168260 -0.0000031
H 0.7078187 -0.2365519 0.9390828
H 0.7078397 -0.2365830 -0.9390858
H -0.8259610 -0.7779199 0.0000060

