209
AdoCbl Energy = -6796.174573935
Co 73.4519229 -56.7225501 7.4181700 
N 73.8601654 -56.1210490 9.1497990 
N 73.7587899 -54.9560732 6.6965865 
N 72.8352063 -57.5088112 5.7800572 
N 73.4349241 -58.3929972 8.2787850 
C 73.6259054 -57.0816327 10.2787833 
C 72.1359282 -57.1927921 10.6245641 
C 74.4745445 -56.4533235 11.4606859 
C 73.8405643 -56.7037968 12.8343291 
C 75.9218775 -56.9826511 11.4289416 
C 76.9193664 -56.2723521 12.3597687 
O 76.5894284 -55.5935029 13.3433417 
C 74.5491888 -54.9467571 11.0468055 
C 73.4851685 -53.9807300 11.6145851 
C 73.8627899 -53.3890418 12.9740631 
C 72.7258479 -52.5501258 13.5421192 
O 71.5393007 -52.8876394 13.4259238 
C 74.4202826 -55.0097638 9.5420814 
C 74.8077674 -53.9379942 8.6630645 
C 75.6054380 -52.8032240 9.2739555 
C 74.4537427 -53.9327360 7.3281759 
C 74.8260300 -52.8566902 6.2960878 
C 74.6858875 -51.3911516 6.7308537 
C 76.3083251 -53.1704540 5.8902181 
C 76.8580856 -52.1926503 4.8601152 
O 76.4905185 -52.2083377 3.6755805 
C 73.9088866 -53.2210796 5.0875336 
C 72.6600614 -52.3469661 4.8163461 
C 71.5608251 -52.4745320 5.8650969 
C 70.2935613 -51.7145548 5.4978184 
O 70.2449445 -50.8990079 4.5670673 
C 73.5143711 -54.6348875 5.4068066 
C 72.9377374 -55.4738040 4.4685288 
C 72.6167061 -56.8119383 4.6481155 
C 71.9662808 -57.6377121 3.5563751 
C 72.8104960 -57.6389473 2.2671297 
C 70.5865559 -57.0116689 3.2642670 
C 71.9307611 -59.0610437 4.2044973 
C 70.5699282 -59.8000524 4.2232078 
C 70.3906315 -60.8697185 3.1297879 
C 70.1713839 -60.3089291 1.7336000 
O 71.0152340 -60.4318493 0.8279085 
C 72.4992556 -58.8404330 5.5998526 
C 72.7178049 -59.8622817 6.5043434 
C 72.5126563 -61.2917459 6.0465938 
C 73.2003332 -59.6016249 7.8323447 
C 73.6002596 -60.6573781 8.8659494 
C 74.9641028 -61.2413889 8.4329299 
C 72.5800610 -61.7838186 9.1192119 
C 71.1470956 -61.2778079 9.2223437
C 70.1512317 -62.3737035 9.5729288
O 70.4821718 -63.5506103 9.7845496
C 73.7539803 -59.7951067 10.1664171
C 74.7648559 -60.4132410 11.1360398
C 74.4865520 -60.1423175 12.6054232
O 73.3342100 -60.0756535 13.0519693
C 74.0894842 -58.4041348 9.6168526
C 67.7462477 -62.8594049 9.7209662
C 67.4313108 -63.4770626 8.3578860
C 66.2668167 -64.4515186 8.4181579
O 67.0671876 -62.4118073 7.4274074
O 67.2731956 -61.6502660 5.0715119
O 69.3902097 -62.6030763 6.2933756
P 68.1096274 -61.8370683 6.3204364
O 68.4961846 -60.3415258 6.8938674
C 67.4714219 -59.3494573 6.9767371
C 67.5757550 -58.5520481 8.3153082
O 68.6379391 -59.0390316 9.1263010
C 67.7359629 -57.0759235 7.8680087
O 67.2437360 -57.0328766 6.5402748
C 67.6102735 -58.2706110 5.8835551
C 66.7116160 -58.4012693 4.6553193
O 67.1521121 -59.4227758 3.7661192
N 69.0996522 -56.5491015 7.9765119
C 69.3800099 -55.2795673 8.4810685
C 70.2998995 -57.0876201 7.5770196
N 71.3196050 -56.2637037 7.7749616
C 70.7720124 -55.1130836 8.3552654
C 71.3594489 -53.9287202 8.8067382
C 70.5611411 -52.9390796 9.3743520
C 71.1909741 -51.6546376 9.8498995
C 69.1544516 -53.1263343 9.5024432
C 68.3040390 -52.0521719 10.1307431
C 68.5579912 -54.3007027 9.0415578
C 77.9568057 -58.2813111 5.9509968
C 76.8303414 -59.3076485 5.6517484
C 75.7806678 -58.4583766 4.9443708
C 75.9402171 -57.1190958 5.6566905
C 75.3905124 -57.0294523 7.0702226
C 78.6381554 -60.3540566 10.3239841
C 78.6154826 -59.2879315 9.4023306
N 78.6543565 -57.9074761 9.5398679
C 78.5026400 -57.4405086 8.3117851
N 78.3720463 -58.4336242 7.3721688
C 78.4618123 -59.6324070 8.0530561
N 78.3925851 -60.8780828 7.5491639
C 78.4671241 -61.8054515 8.5171280
N 78.5733281 -61.6152184 9.8419497
H 72.0089440 -57.8219622 11.5078371
H 71.6998720 -56.2130331 10.8273675
H 71.5936182 -57.6460271 9.7952728
H 74.5095336 -56.3403304 13.6137502
H 73.6715717 -57.7707644 12.9925665
H 72.8766297 -56.1991346 12.9309385
H 75.9418235 -58.0410121 11.7073612
H 76.3256710 -56.9207011 10.4122403
H 75.5267184 -54.5529974 11.3339655
H 72.5100859 -54.4679170 11.6818061
H 73.3587367 -53.1562286 10.9058987
H 74.0716356 -54.1865557 13.6946420
H 74.7791934 -52.7948200 12.8916467
H 76.0973627 -53.1277093 10.1912110
H 74.9825475 -51.9373930 9.5248327
H 76.3926252 -52.4555265 8.6039967
H 73.7437248 -51.2129897 7.2548964
H 75.4988910 -51.0706176 7.3813714
H 74.7065170 -50.7487441 5.8459942
H 76.9378416 -53.1740252 6.7839076
H 76.3467318 -54.1715623 5.4515034
H 74.5077820 -53.1907425 4.1729914
H 72.9619332 -51.3027052 4.7030656
H 72.2577852 -52.6542727 3.8450935
H 71.8950928 -52.1011172 6.8392917
H 71.3025663 -53.5275861 6.0234859
H 72.7636250 -55.0531207 3.4841133
H 73.8317995 -57.9731848 2.4735853
H 72.3563109 -58.3148997 1.5358800
H 72.8557641 -56.6360862 1.8302988
H 69.9798045 -56.9242256 4.1715329
H 70.0364404 -57.6017270 2.5271672
H 70.7270789 -56.0049097 2.8600621
H 72.6447645 -59.6926189 3.6580315
H 70.4377372 -60.2958606 5.1845143
H 69.7540356 -59.0816157 4.1472560
H 71.2664891 -61.5225877 3.0891340
H 69.5234550 -61.4793748 3.4065947
H 73.2768094 -61.9460316 6.4666405
H 71.5326715 -61.7017781 6.3191293
H 72.6038957 -61.3599719 4.9605614
H 75.2537988 -62.0728269 9.0812241
H 75.7476550 -60.4787334 8.4888620
H 74.9332924 -61.6157330 7.4078851
H 72.8663941 -62.2776440 10.0562578
H 72.6458655 -62.5516720 8.3462388
H 71.0604778 -60.4866544 9.9763609
H 70.8179195 -60.8291821 8.2784034
H 72.7846823 -59.7611096 10.6710429
H 75.7926759 -60.1417612 10.8767880
H 74.7062573 -61.5061736 11.0503530
H 75.1709503 -58.3328084 9.4464367
H 66.8761185 -62.3107725 10.0939718
H 67.9885120 -63.6574904 10.4285254
H 68.3331392 -63.9599363 7.9709269
H 65.3604763 -63.9480898 8.7720282
H 66.0712102 -64.8719930 7.4276934
H 66.5002692 -65.2720330 9.1050621
H 66.4867804 -59.8216092 6.9192657
H 66.6284218 -58.6271890 8.8535524
H 68.5067925 -58.6905802 10.0240531
H 67.1164277 -56.4037369 8.4582302
H 68.6604097 -58.2242452 5.5674973 
H 65.6775779 -58.5812990 4.9838429 
H 66.7380556 -57.4567794 4.1034492 
H 67.1913650 -60.2992977 4.2725545 
H 70.3843337 -58.0899527 7.1833948 
H 72.4232438 -53.7640000 8.7068602 
H 70.6868563 -50.7795956 9.4241690 
H 71.1304677 -51.5684615 10.9414713 
H 72.2457521 -51.6093057 9.5635971 
H 68.6557920 -51.8156067 11.1418463 
H 67.2599527 -52.3683543 10.1920851 
H 68.3479970 -51.1205035 9.5529699 
H 67.4846479 -54.4353284 9.1343497 
H 78.8329076 -58.4209961 5.3141292 
H 76.4021425 -59.6497551 6.5982454 
H 74.7851712 -58.8885339 5.0730239 
H 75.6219722 -56.2928627 5.0194654 
H 75.8668311 -56.1729458 7.5550908 
H 75.6671681 -57.9308264 7.6225850 
H 78.4654479 -56.3977880 8.0354924 
H 78.4285824 -62.8409149 8.1898501 
H 68.3486585 -51.5010571 6.1201826 
H 69.2812971 -52.6276810 7.0604521 
H 72.4010164 -50.8478982 14.6469837 
H 74.0706086 -51.1648459 14.2934903 
H 78.9316650 -56.0373959 12.5793788 
H 78.4668660 -56.9409965 11.1382903 
H 75.4919607 -59.9319650 14.3856117 
H 76.5180720 -60.1407377 12.9982862 
H 78.0788206 -51.3151587 6.2848821 
H 78.1606461 -50.6143782 4.7011892 
H 78.9229157 -60.9769729 12.2323764 
H 78.9625697 -59.2772129 12.0283451 
H 68.3278456 -59.5297199 2.3137188 
H 68.8049700 -59.2419118 0.6498336 
H 68.6923628 -60.9824107 9.3417820 
N 78.6509858 -60.1747062 11.6741642 
N 77.7569069 -51.3007359 5.3273202 
N 73.0993030 -51.4271446 14.1971844 
N 75.5864079 -60.0207865 13.3810989 
N 68.8713645 -61.9408465 9.6462873 
N 68.9944331 -59.6724430 1.5467127 
N 78.2101879 -56.4862780 12.0271872 
N 69.2171535 -51.9999943 6.2671852 
O 77.4238051 -56.9949376 5.7422521 
O 77.2395033 -60.4219695 4.8809839 
H 77.7473844 -60.9804031 5.5113540 
O 76.0911119 -58.2827157 3.5594797 
H 76.3530557 -59.1553084 3.2151985

