140
Cbi+' Energy = -4461.442665813
Co -0.8627324 -0.0267212 -0.7447215 
C 0.3849484 1.7240976 1.1547597 
C -0.1358807 2.5287654 2.4013822 
C -0.9615118 1.4409721 3.1592014 
C -1.4942689 0.6136996 2.0115933 
C -2.7029153 -0.1534056 2.0493386 
C -3.0258557 -0.9926975 1.0108912 
C -4.3248853 -1.7848101 0.8150494 
C -3.7733213 -2.9628101 -0.0376544 
C -2.7549799 -2.2201274 -0.8502200 
C -2.4614616 -2.4981759 -2.1710612 
C -1.5855755 -1.7710918 -2.9585881 
C -1.4162878 -1.9784047 -4.4496764 
C -0.0231833 -1.3343573 -4.6669448 
C 0.0476139 -0.3413193 -3.5228002 
C 0.8961018 0.7401700 -3.4896513 
C 0.9991704 1.5704963 -2.3256272 
C 1.7817747 2.8798730 -2.2183467 
C 1.7518266 3.1367720 -0.6766396 
C 0.4730217 2.4267358 -0.2238557 
C 1.7059026 0.9805952 1.3913056 
C 0.9364972 3.1434631 3.3053849 
C -1.1097555 3.6916384 1.9968163 
C -2.3913244 3.3088240 1.2553520 
C -0.1713389 0.5706292 4.1697566 
C -1.0293362 -0.4620910 4.9261374 
C -0.1430734 -1.5421624 5.5230489 
C -3.6655036 0.0552618 3.2036376 
C -5.1261223 -2.2694120 2.0252196 
C -5.2643425 -0.9150822 -0.1307574 
C -4.9928085 0.5796517 -0.0105961 
C -3.1548061 -4.1400507 0.7616793 
C -2.0435683 -3.8251443 1.7742978 
C -0.6737610 -3.5581729 1.1563025 
C -2.4810768 -1.0990880 -5.1557273 
C -1.5670057 -3.4254779 -4.9258246