140
Cbi+_A Energy = -4461.397516577
Co 1.0691581 -0.4450992 0.4986371
C 0.3262177 1.9514574 -0.1115200
C -0.0461521 3.5010834 -0.0858507
C 1.4363490 3.5695511 -0.6078316
C 1.9831024 2.2115126 -0.2336511
C 3.3754081 1.8768099 -0.2384306
C 3.7836060 0.5614048 -0.1646195
C 5.2353463 0.0658457 -0.2839559
C 5.0491543 -1.4775602 -0.4370946
C 3.6206734 -1.6812710 -0.0375193
C 3.1154748 -2.9498532 0.2061703
C 1.8228698 -3.2429517 0.5887021
C 1.3561349 -4.6326584 0.9690693
C -0.1816472 -4.4499140 0.8684399
C -0.3386134 -2.9605269 1.1201914
C -1.4945026 -2.3416391 1.5634537
C -1.6509273 -0.9257970 1.4579487
C -2.9290305 -0.1305314 1.7549895
C -2.6279089 1.1865900 0.9734136
C -1.1088799 1.3006962 1.0501534
C -0.8813632 1.4700209 -1.4630421
C -1.0496652 4.3115677 -0.9149578
C -0.0610793 4.0329558 1.3757343
C 0.1563766 5.5414073 1.4682774 
C 1.6444455 3.8787333 -2.1149000
C 1.8153975 5.3830222 -2.3906384
C 3.2293088 5.8326169 -2.0257772
C 4.3473354 3.0324744 -0.3492095
C 6.0241838 0.6976172 -1.4450400
C 5.9460806 0.3382628 1.0810874 
C 7.4378059 0.0144265 1.0292497 
C 5.3402197 -2.1315235 -1.8180711