4
Me Energy = -39.86475861662
C 0.0000000 0.0000000 0.0000000
H -0.5416606 0.9381838 0.0000000
H -0.5416606 -0.9381838 0.0000000
H 1.0833213 0.0000000 0.0000000
