144
MeCbi+_A Energy = -4501.335894534
Co 1.0384053 -0.4167239 0.4974171
C -0.3726942 1.9567218 -0.2091555
C -0.0938783 3.5059703 -0.1794849
C 1.3918382 3.5746882 -0.6887237
C 1.9338629 2.2207221 -0.2985117
C 3.3260563 1.8920782 -0.2806774
C 3.7301219 0.5749468 -0.2390275
C 5.1792623 0.0783705 -0.3691646
C 4.9853906 -1.4595729 -0.5540136
C 3.5615868 -1.6621785 -0.1391395
C 3.0637229 -2.9275784 0.1299077
C 1.7752975 -3.2174912 0.5245269
C 1.3172911 -4.6036837 0.9261322
C -0.2205544 -4.4287476 0.8299525
C -0.3798444 -2.9373436 1.0663129
C -1.5344632 -2.3198073 1.5116444
C -1.7007580 -0.9090936 1.3727611
C -2.9813420 -0.1143460 1.6561054
C -2.6806353 1.1943798 0.8606983
C -1.1620039 1.3065508 0.9428518
C -0.9141054 1.4775560 -1.5667328
C -1.0882288 4.3196294 -1.0159826
C -0.1184595 4.0340747 1.2836254
C 0.1025414 5.5413708 1.3801570
C 1.6155298 3.8791393 -2.1942657
C 1.7960451 5.3821623 -2.4703253
C 3.2062088 5.8262319 -2.0853493
C 4.2964659 3.0504967 -0.3531420
C 5.9701990 0.7330735 -1.5155969
C 5.8878823 0.3153340 1.0029695
C 7.3795415 -0.0092109 0.9464725
C 5.2559093 -2.0852314 -1.9514356
C 6.6161402 -2.7876717 -1.9928836
C 6.6253183 -3.9478760 -0.9964634
C 1.7082945 -4.8068208 2.4115745
C 1.9210568 -5.7272981 0.0773052
C -0.7797594 -4.8096114 -0.5662176
C -2.2907151 -4.6508643 -0.6951344
C -2.7920297 -5.0101947 -2.0960350
C -2.6203805 -3.1593511 2.1557426
C -3.0918328 0.1498675 3.1730689
C -3.5424671 2.4097871 1.2293545
C -4.9142594 2.2485863 0.5678175
C -4.2815948 -0.7641350 1.1400819
C -4.2461255 -1.1841031 -0.3388027
C -5.6370007 -1.5970393 -0.7933859
C -7.8734584 -0.6952466 -1.3367606
C -8.6023806 0.6302959 -1.1419813
C -10.0794202 0.5062681 -1.4883711
H 1.9103434 4.3555390 -0.1256218
H 5.6351444 -1.9831528 0.1530562
H 3.7627777 -3.7509677 0.0139818
H -0.7274194 -5.0271087 1.5921248
H -2.9098298 0.9864560 -0.1861316
H -0.8262346 1.7342120 1.8955045
H -0.2215109 1.7432599 -2.3676098
H -1.8909637 1.9137630 -1.7894800
H -1.0131308 0.3880841 -1.5563922
H -2.1149211 4.1667900 -0.6696091
H -1.0600701 4.0492314 -2.0718376
H -0.8693826 5.3880092 -0.9398062
H 0.6705187 3.5431407 1.8663069
H -1.0752496 3.7867652 1.7531892
H -0.7880675 7.2371527 2.1056552
H -1.7061988 5.7872267 2.3802179
H 0.7878964 3.4866779 -2.7903852
H 2.5159363 3.3632309 -2.5425113
H 1.0360097 5.9714663  -1.9496033 
H 1.6965742 5.5663934  -3.5443409 
H 4.2139037 6.9616014  -0.7231961 
H 2.5026614 6.8425458  -0.4178547 
H 5.2550808 2.8045618  0.1005505  
H 3.8932142 3.9079660  0.1926093  
H 4.4889444 3.3899709  -1.3762416 
H 5.3605387 0.8241741  -2.4176784 
H 6.8454391 0.1218557  -1.7499432 
H 6.3265058 1.7297203  -1.2539401 
H 5.7347301 1.3457154  1.3351504  
H 5.4295481 -0.3382476 1.7539810  
H 9.2080592 0.8349939  1.3250313  
H 7.8652030 1.8909833  1.6447846  
H 4.4884476 -2.8392382 -2.1481710 
H 5.1813312 -1.3335842 -2.7410987 
H 6.7822688 -3.2137627 -2.9894860 
H 7.4347532 -2.0934243 -1.7820128 
H 7.7766360 -4.7971273 0.4516427  
H 8.3735560 -3.2831430 -0.1429877 
H 2.7956503 -4.7847617 2.5285621  
H 1.3408911 -5.7785277 2.7576430  
H 1.2731564 -4.0241063 3.0430307  
H 1.7558803 -5.5705202 -0.9909859 
H 1.4783067 -6.6878966 0.3600572  
H 3.0000193 -5.7968407 0.2440569  
H -0.5165892 -5.848865 -0.7762615 
H -0.2826108 -4.204758 -1.3333628 
H -2.5882284 -3.622966 -0.4716082 
H -2.8101593 -5.293459 0.0274237  
H -4.4622183 -4.871729 -3.2543671 
H -4.6592491 -4.113073 -1.6978903 
H -2.2124997 -4.112415 2.4930041  
H -3.4587871 -3.381959 1.4900983  
H -3.0233326 -2.655841 3.0374844  
H -4.0204028 0.6830026 3.4023609  
H -2.2484005 0.7444166 3.5397711  
H -3.1086275 -0.786490 3.7348183  
H -3.6173874 2.5608135 2.3107114  
H -3.1015399 3.3146760 0.7990988  
H -6.9180576 2.0981215 0.9516320  
H -5.9313289 2.5053039 2.3412923  
H -5.0898638 -0.041030 1.2871856  
H -4.5493895 -1.624164 1.7567622  
H -3.9014528 -0.355434 -0.9638360 
H -3.5675738 -2.025488 -0.4866068 
H -6.0536115 0.3918685 -1.0198711 
H -8.2877431 -1.460810 -0.6730404 
H -8.0277958 -1.031132 -2.3709169 
H -8.1327038 1.3978898 -1.7736949 
H -10.5595973 -0.2563935 -0.8657844 
H -10.2053488 0.2244491 -2.5380613 
H -10.5934115 1.4627837 -1.3392558 
H -9.2723658 1.4439507 0.5306429
N 0.9849571 1.3619260 -0.0220667
N 2.8645255 -0.5057934 -0.0586327
N 0.7892933 -2.2893199 0.6870489
N -0.7398378 -0.1194507 0.9359158
N -0.8956226 6.2379927 1.9831113 
N 3.2914901 6.6867225 -1.0357026 
N 8.2094298 1.0000090 1.3193486 
N 7.7628035 -4.0812644 -0.2643051 
N -4.0689114 -4.6205048 -2.3571040 
N -6.0122278 2.3835809 1.3418692 
N -6.4525941 -0.5493548 -1.0555304 
O 1.1061124 6.1084071 0.9432939 
O 4.1908837 5.4148821 -2.6973038 
O 7.8094066 -1.1030870 0.5800950 
O 5.6705990 -4.7212308 -0.8931361 
O -2.0887195 -5.6066352 -2.9075268 
O -4.9878754 1.9813220 -0.6387401 
O -5.9948760 -2.7804924 -0.8582659 
O -8.4330805 1.0482531 0.2480600
C 1.6424662 -0.1294351 2.3338095
H 0.7766927 -0.1864615 2.9957766
H 2.3582492 -0.9227636 2.5569459
H 2.1145890 0.8552788 2.3653842