144
MeCbi+_A Energy = -4501.335894534
Co 1.0384053 -0.4167239 0.4974171
C -0.3726942 1.9567218 -0.2091555
C -0.0938783 3.5059703 -0.1794849
C 1.3918382 3.5746882 -0.6887237
C 1.9338629 2.2207221 -0.2985117
C 3.3260563 1.8920782 -0.2806774
C 3.7301219 0.5749468 -0.2390275
C 5.1792623 0.0783705 -0.3691646
C 4.9853906 -1.4595729 -0.5540136