8
MeMe Energy = -79.87603475627
C 0.7658380 -0.0000044 0.0000078
C -0.7658380 0.0000044 -0.0000078
H 1.1624297 -0.7403546 0.7033400
H -1.1624297 0.7403546 -0.7033400
H 1.1624055 -0.2389412 -0.9928308
H -1.1624055 0.2389412 0.9928308
H 1.1624014 0.9792779 0.2895003
H -1.1624014 -0.9792779 -0.2895003

