179
Cbl Energy = -5907.888127874
Co 0.0 0.0 0.0
N 0.5677310000000091 0.5689624999999978 1.6866629
N 0.5763948000000028 1.6852339999999941 -0.7715195000000001
N -0.47099219999999775 -0.8204904000000042 -1.6760753
N -0.028360199999994506 -1.6837811000000045 0.8333446000000002
C 0.32062000000000523 -0.37046560000000284 2.8293847999999997
C -1.149969900000002 -0.2993822000000037 3.2621523999999997
C 1.3197423000000015 0.15344189999999713 3.9328856000000005
C 0.8471053000000097 -0.10731040000000291 5.3629301
C 2.727732099999997 -0.4745586000000017 3.7073122000000005
C 3.8446706000000006 0.20768419999999566 4.486549999999999
O 3.917257500000005 0.18274470000000065 5.7222227
C 1.4363450000000029 1.6647502000000003 3.5660767999999994
C 0.4634191000000101 2.662284100000001 4.240039400000001
C 0.9962203000000045 3.2258455999999995 5.5594932
C -0.016146699999993075 4.160049999999998 6.2100951
O -1.2334101999999945 3.9294391999999974 6.182844000000001
C 1.2105356 1.6458452999999977 2.0701228
C 1.6152990000000074 2.708252899999998 1.1990247000000007
C 2.443798600000008 3.818397399999995 1.814743
C 1.2756609999999995 2.7084383999999986 -0.14025009999999938
C 1.6882370000000009 3.7727927999999977 -1.1708754
C 1.5223542000000094 5.241299599999998 -0.7534641999999998
C 3.1805549999999982 3.458211399999996 -1.5362393999999995
C 3.7654150000000044 4.452272999999998 -2.5299363999999995
O 3.427841200000003 4.473067699999994 -3.7236065
C 0.8106333000000063 3.400545600000001 -2.4019088
C -0.4372994999999946 4.268767099999998 -2.7030146999999998
C -1.5746747000000028 4.106097800000001 -1.7009837
C -2.843963699999989 4.840584100000001 -2.1097609999999998
O -2.9818284999999918 5.386755299999997 -3.2128812
C 0.39906710000001056 1.9933395999999988 -2.0811662999999996
C -0.1469115999999957 1.1578690999999992 -3.0366665
C -0.5341657999999967 -0.16040029999999916 -2.8518697
C -1.0445984999999922 -1.0138833000000034 -3.9969045999999997
C 0.07292739999999753 -1.2375158000000042 -5.0381253
C -2.228387099999992 -0.30060130000000385 -4.674467399999999
C -1.3747321999999969 -2.358524100000004 -3.276351
C -2.8507496000000003 -2.8345841000000007 -3.2738538999999998
C -3.188524000000001 -3.919667700000005 -4.315846199999999
C -3.2940432999999985 -3.4024146 -5.7397088
O -2.4049512999999934 -3.5976599000000036 -6.5877139
C -0.8664423000000028 -2.138049300000006 -1.8601155
C -0.8002065000000016 -3.1462683000000027 -0.9207298999999995
C -1.1316592000000014 -4.560523400000001 -1.3493953999999997
C -0.35083600000000104 -2.8882752000000025 0.4144323999999999
C -0.08922259999999937 -3.9421086000000045 1.4972969000000003
C 1.2469605000000001 -4.649741800000001 1.1799528000000006
C -1.2071308000000016 -4.981082700000002 1.7211549999999995
C -2.6052243999999973 -4.375548700000003 1.7574234999999998
C -3.6914500999999973 -5.4013226 2.0459648999999995
O -3.4553267999999946 -6.599520699999999 2.2683397999999997
C 0.02666310000000749 -3.0356635000000054 2.762969
C 0.7546839000000034 -3.6925027000000057 3.9362984999999995
C 0.03366090000000099 -3.5152924 5.271258700000001
O -1.1728227999999916 -3.2484070000000003 5.3441958
C 0.5988332000000014 -1.7420511000000047 2.1848626000000007
C -6.1288523999999995 -5.719042399999999 2.0983906
C -6.451501699999994 -6.309054700000004 0.7251241000000004
C -7.680191899999997 -7.2030387000000005 0.7527781999999998
O -6.720901299999994 -5.2186442 -0.20812649999999966
O -6.406733500000001 -4.4681546999999995 -2.5560545
O -4.391882199999998 -5.5710026 -1.2882637
P -5.614378500000001 -4.715522400000005 -1.2880652999999995
O -5.140733099999991 -3.250608800000002 -0.7013102
C -6.096915199999998 -2.189382800000004 -0.6559349999999995
C -6.006599600000001 -1.4099229999999991 0.6939335
O -5.026899399999991 -1.9772278000000014 1.5549602
C -5.715067099999999 0.05378689999999864 0.2711334000000001
O -6.134823900000001 0.1413191999999981 -1.0800358999999995
C -5.832594999999998 -1.1166304999999994 -1.7324351999999994
C -6.692578799999993 -1.177957500000005 -2.9932637999999994
O -6.304127600000001 -2.2362751000000003 -3.8632633999999997
N -4.322537699999998 0.469662299999996 0.45151509999999995
C -3.953514299999995 1.6966699999999975 1.0033787000000007
C -3.158846799999992 -0.15144910000000067 0.059564400000000184
N -2.0843606999999906 0.5843051999999958 0.2988528000000006
C -2.5510242000000005 1.7558289999999985 0.9028963999999995
C -1.8716493999999955 2.8725114999999946 1.3939257999999999
C -2.59426169999999 3.9069018 1.9848751999999994
C -1.865807899999993 5.1165643 2.5150769000000004
C -4.014185099999992 3.8288670999999965 2.0915692999999997
C -4.784414599999991 4.9485715 2.7449838
C -4.699436899999995 2.721281099999999 1.5878265999999996
H -1.3167894999999987 -0.9194563000000002 4.145695700000001
H -1.450800099999995 0.7259110999999976 3.4814746000000003
H -1.781501199999994 -0.6707099999999997 2.4531378000000004
H 1.6078453000000081 0.22374169999999793 6.072270100000001
H 0.6908599000000066 -1.1746672000000018 5.529806799999999
H -0.09245909999999924 0.4059811999999994 5.578786000000001
H 2.716957100000002 -1.5222946000000022 4.0207116
H 2.9718657000000093 -0.44647859999999895 2.6408538000000004
H 2.448897400000007 2.0111094999999963 3.7906873
H -0.5166746000000018 2.2127403 4.405241800000001
H 0.2982965000000064 3.496837399999997 3.5519601000000005
H 1.189956500000008 2.4170198999999997 6.2732685
H 1.949029699999997 3.742514100000001 5.399482600000001
H 3.0180310000000077 3.4443899999999985 2.6642551999999995
H 1.8307953999999995 4.6523004999999955 2.1767795000000003
H 3.165875600000007 4.2285222000000005 1.110269800000001
H 0.5365377000000109 5.424854599999996 -0.3187907000000001
H 2.2723636000000056 5.5629822999999945 -0.03234680000000001
H 1.6256965000000037 5.880179200000001 -1.6355367999999997
H 3.785850300000007 3.435536799999994 -0.6264596999999998
H 3.222733500000004 2.463129500000001 -1.9900459000000001
H 1.4321794000000097 3.4315906 -3.3006326
H -0.14195979999999508 5.318771099999999 -2.7827468
H -0.8037623999999965 3.9785374999999945 -3.6928104
H -1.287239200000002 4.441230300000001 -0.6993719999999994
H -1.8306242999999967 3.0442165999999986 -1.5934688999999995
H -0.23276489999999228 1.563161799999996 -4.0391870999999995
H 0.9470634000000047 -1.705301900000002 -4.5732145
H -0.29773819999999773 -1.8963287999999991 -5.830342099999999
H 0.3842737000000085 -0.2885498999999996 -5.486602899999999
H -3.0091257999999925 -0.031192700000005402 -3.9565225999999996
H -2.6691742999999946 -0.9272974000000005 -5.4521846
H -1.8779473000000024 0.6223224999999957 -5.146037
H -0.775451799999999 -3.1505269000000027 -3.7404797
H -3.089579999999998 -3.252241600000005 -2.2945944999999996
H -3.521443599999998 -1.984570000000005 -3.4112738999999994
H -2.4237383999999906 -4.700741000000001 -4.3006711
H -4.142784800000001 -4.370819400000002 -4.0250389
H -0.4487261000000018 -5.276193300000003 -0.8899561
H -2.156591199999994 -4.8597009 -1.0992486000000001
H -1.0198807000000016 -4.668374700000001 -2.4299565999999997
H 1.4667736000000104 -5.410394199999999 1.9358015999999996
H 2.0781067000000064 -3.937579200000002 1.1532742999999996
H 1.2021193000000068 -5.150964399999999 0.2099859000000004
H -1.0007282999999916 -5.477263400000005 2.6778537999999994
H -1.1657359000000014 -5.767652099999999 0.9656470000000006
H -2.674053299999997 -3.593441900000002 2.5221341000000006
H -2.8535234999999943 -3.8917915000000036 0.8060652000000008
H -0.9918783999999903 -2.8262749000000014 3.1007344999999997
H 1.7992368000000027 -3.3770944000000043 4.0196062999999995
H 0.7892956000000027 -4.779124500000002 3.7838586000000003
H 1.6770965999999987 -1.845712600000006 2.0211465000000004
H -6.968591500000002 -5.112281200000005 2.450948800000001
H -5.9616372999999925 -6.534427600000001 2.8079549000000004
H -5.575232200000002 -6.8502129000000025 0.35712400000000066
H -8.558324299999995 -6.641675500000005 1.090413700000001
H -7.881673899999996 -7.603372799999995 -0.24487589999999937
H -7.518067799999997 -8.04155500000001 1.4384730999999995
H -7.107651599999997 -2.5918001000000004 -0.7664404999999999
H -6.9845009000000005 -1.4200143000000054 1.1804290000000002
H -5.176572199999995 -1.6201928999999993 2.4463039999999996
H -6.310998599999991 0.7680769999999981 0.8360602000000004
H -4.771050399999993 -1.1467262000000034 -2.0104647
H -7.7493881999999985 -1.2719668000000013 -2.702738
H -6.569678699999997 -0.24127670000000023 -3.5454975999999996
H -6.3551669999999945 -3.1104145000000045 -3.354877
H -3.143495399999992 -1.145610700000006 -0.36289769999999955
H -0.7951757000000015 2.944685700000001 1.3083316000000007
H -2.307377299999999 6.047646999999998 2.1428504999999998
H -1.904935100000003 5.151545200000001 3.6107867000000002
H -0.8143333000000013 5.097102799999995 2.215083100000001
H -4.42685449999999 5.1291504 3.7655887999999997
H -5.850513699999993 4.713030499999995 2.788920300000001
H -4.663121799999999 5.890241099999997 2.1952098000000007
H -5.7814479999999975 2.673122499999998 1.6653905000000009
H -4.718230800000001 5.264007999999997 -1.3856924
H -3.7111621999999898 4.3673517 -0.2857531
H -0.10439639999999883 5.881560699999994 7.3284325
H 1.4987310000000065 5.419401399999998 6.8500096
H 5.55823070000001 1.2969706999999957 4.168534300000001
H 4.756159100000005 0.7931077000000002 2.719148500000001
H 0.3881197000000043 -3.687158100000005 7.2873692000000005
H 1.7817277000000047 -3.954442400000005 6.2898610999999995
H 4.959433500000003 5.284358300000001 -1.0551487999999996
H 5.0884815 6.0202164999999965 -2.6195166
H -5.100830099999996 -2.479678100000001 -5.2816422
H -4.5264793999999995 -2.282870800000005 -6.9271667
H -5.044261300000002 -3.913268000000002 1.7517379000000002
N 4.663870799999998 5.322481699999997 -2.0204065
N 0.5039116000000092 5.241766399999996 6.8322444
N 0.8022446000000087 -3.7158490000000057 6.3640191
N -4.940820299999999 -4.881911600000002 2.059353100000001
N -4.423426499999991 -2.712867800000005 -6.0159671999999995
N 4.754667900000001 0.8657593000000006 3.7270816
N -3.822960600000002 4.841253599999995 -1.1752380999999996

